################################################################################
# Symmetry function scaling data.
################################################################################
# Col  Name     Description
################################################################################
# 1    e_index  Element index.
# 2    sf_index Symmetry function index.
# 3    sf_min   Symmetry function minimum.
# 4    sf_max   Symmetry function maximum.
# 5    sf_mean  Symmetry function mean.
# 6    sf_sigma Symmetry function sigma.
#########################################################################################################################
#        1          2                        3                        4                        5                        6
#  e_index   sf_index                   sf_min                   sf_max                  sf_mean                 sf_sigma
#########################################################################################################################
         1          1   4.1888389350100683E-02   2.9885837327960968E-01   1.3848247561758811E-01   2.7376804163828615E-02
         1          2   0.0000000000000000E+00   8.7275841619326486E-02   9.1926050836317694E-04   3.8227588040111856E-03
         1          3   0.0000000000000000E+00   8.3171822568877174E-02   9.5690525390675746E-04   4.2004970950337648E-03
         1          4   1.4218929169936714E-01   3.5787997996534299E-01   2.6084897271967300E-01   2.4178274528415641E-02
         1          5   1.2196791926070927E-01   7.8207565655140698E-01   4.0443310526109616E-01   8.0098348066821423E-02
         1          6   0.0000000000000000E+00   2.7646160757257104E-01   4.9685234067251179E-03   1.7283741180467490E-02
         1          7   0.0000000000000000E+00   2.6018055257590167E-01   4.8945738288129160E-03   1.7481766777769369E-02
         1          8   2.6922501925167319E-01   6.1024104163464532E-01   4.5036446122466045E-01   5.4360085383940854E-02
         1          9   2.2933986237189397E-01   1.4520331659760792E+00   8.1602994420852903E-01   1.7015842959320168E-01
         1         10   0.0000000000000000E+00   5.7021447153195892E-01   1.8339250559991992E-02   5.2287150530306553E-02
         1         11   0.0000000000000000E+00   5.4966582790168583E-01   1.7628635115659083E-02   5.0944211542448013E-02
         1         12   2.8458655378948355E-01   8.3662542544997487E-01   5.6215646671255648E-01   8.8347637711510302E-02
         1         13   2.2897519556299797E-01   2.0460516922379637E+00   1.1990697917335058E+00   2.6645616178215220E-01
         1         14   0.0000000000000000E+00   8.1183153347412551E-01   4.7506920083462523E-02   1.0968242437121242E-01
         1         15   0.0000000000000000E+00   7.9834869699423927E-01   4.5551640724197026E-02   1.0626060050804079E-01
         1         16   1.6238959583213775E-01   1.0371281052867003E+00   6.0712053194135684E-01   1.2437919267624176E-01
         1         17   1.6625363209050206E-01   2.3438751341963200E+00   1.3682814897173050E+00   3.2988415451857495E-01
         1         18   0.0000000000000000E+00   8.9894710605018657E-01   8.8442958943662442E-02   1.6719287266214738E-01
         1         19   0.0000000000000000E+00   8.9695244525422479E-01   8.5413270300627661E-02   1.6305158708627443E-01
         1         20   8.3504324263311808E-02   1.1631501711831678E+00   6.5140323325522742E-01   1.6183127674704223E-01
         1         21   1.6676607348212139E-01   2.1472345049124262E+00   1.2786236980095356E+00   3.3200476483329122E-01
         1         22   0.0000000000000000E+00   7.9574074515331439E-01   1.2023985833816604E-01   1.9289361688418302E-01
         1         23   0.0000000000000000E+00   7.7373810852666103E-01   1.1699451252872524E-01   1.8907479723828655E-01
         1         24   7.0764415336438236E-02   1.1180755904373378E+00   6.4237729671130706E-01   1.6980289057929251E-01
         1         25   9.9069848855249651E-02   1.6406118771850877E+00   9.8776495663437158E-01   2.7025199714092757E-01
         1         26   0.0000000000000000E+00   5.6967660219986782E-01   1.2037389798050467E-01   1.7120185097700555E-01
         1         27   0.0000000000000000E+00   5.7220073265149807E-01   1.1771249457545155E-01   1.6819494855253708E-01
         1         28   5.5942074169814539E-02   8.8600716158951676E-01   5.0976196370121418E-01   1.4027575017042118E-01
         1         29   5.4242563732711954E-02   1.0224913378337128E+00   6.1260798229198987E-01   1.7550456163460915E-01
         1         30   0.0000000000000000E+00   3.4304026361462669E-01   8.9031300863036927E-02   1.1631285154154067E-01
         1         31   0.0000000000000000E+00   3.4081881386445273E-01   8.7418711131997492E-02   1.1463169817805670E-01
         1         32   3.0550352860517237E-02   5.3229988733304179E-01   3.1125000950944154E-01   9.0574552036591705E-02
         1         33   2.7547768688388728E-02   5.0388183878881665E-01   2.9491799466415053E-01   8.8515165877107643E-02
         1         34   0.0000000000000000E+00   1.6627683260039886E-01   4.8602391233422519E-02   5.9723758411053721E-02
         1         35   0.0000000000000000E+00   1.6534783296386873E-01   4.7953747573890766E-02   5.9152433597239033E-02
         1         36   1.1365116127571807E-02   2.6020276250569768E-01   1.4690481213831469E-01   4.5293980172255020E-02
         1         37   1.1709638274491499E-02   1.8859672234535674E-01   1.0759728061267501E-01   3.3751602213903560E-02
         1         38   0.0000000000000000E+00   6.2211147974908829E-02   1.9442674814729725E-02   2.2825830193214630E-02
         1         39   0.0000000000000000E+00   6.2338205398825598E-02   1.9285078993032508E-02   2.2727474121239617E-02
         1         40   3.5118255347833570E-03   9.7981963594932012E-02   5.3479762713204031E-02   1.7346861752680586E-02
         1         41   1.6231563749774847E-04   8.3102537361096629E-02   2.4995300031653164E-02   1.0120054913963698E-02
         1         42   0.0000000000000000E+00   1.9159112867431195E-02   8.1750477139274323E-04   1.7352003302816127E-03
         1         43   0.0000000000000000E+00   2.0320847885345054E-02   7.8544948741528795E-04   1.7053256731503230E-03
         1         44   3.4075458220248866E-03   1.1302101763639452E-01   4.5607244734526674E-02   1.5577724334924039E-02
         1         45   0.0000000000000000E+00   1.2331932847012424E-02   2.7088214494124348E-04   8.1866299402004472E-04
         1         46   0.0000000000000000E+00   2.5309933418077312E-02   5.4851425628284840E-04   1.6692918414470995E-03
         1         47   0.0000000000000000E+00   2.9141589229099308E-02   1.0885285036214346E-03   2.5168018342269813E-03
         1         48   0.0000000000000000E+00   1.1493875639372444E-02   2.5559388563237752E-04   7.7928220211630358E-04
         1         49   0.0000000000000000E+00   2.7678241411009361E-02   1.0533928322246150E-03   2.4854302751097820E-03
         1         50   6.9038443605528625E-05   3.9621107245391814E-02   1.6448682555224650E-02   6.1761161690072576E-03
         1         51   2.9105790810922722E-03   1.7553758936875352E-01   6.6022737046261340E-02   2.2698269282940407E-02
         1         52   0.0000000000000000E+00   2.2412129054387983E-02   1.3284855113643869E-03   2.2821462688670381E-03
         1         53   0.0000000000000000E+00   2.2573223722853940E-02   1.2666082882533544E-03   2.1992384602225424E-03
         1         54   4.4763101521572347E-02   3.1244392399860171E-01   1.6784630195433425E-01   3.7775560574136835E-02
         1         55   0.0000000000000000E+00   3.4541213363377940E-02   1.4907079313760125E-03   3.6461665950309257E-03
         1         56   0.0000000000000000E+00   1.3771566561191947E-01   5.5719747134758491E-03   1.3892519230465738E-02
         1         57   0.0000000000000000E+00   1.4873456758611870E-02   1.0558878870730356E-03   1.8010508219629396E-03
         1         58   0.0000000000000000E+00   3.2879045819937919E-02   1.4247929882720059E-03   3.5466186581999733E-03
         1         59   0.0000000000000000E+00   1.3239573192336193E-02   9.8860857922719310E-04   1.6809985702565917E-03
         1         60   8.9278571158349265E-04   3.6969125130713924E-02   1.5415560780662974E-02   4.9471694779781791E-03
         1         61   5.2221784804668412E-07   1.9596413747519633E-02   4.8593173918281074E-03   2.4434834736768380E-03
         1         62   0.0000000000000000E+00   8.2022464734184970E-03   1.9549902193298740E-04   6.1797568969589023E-04
         1         63   0.0000000000000000E+00   1.0328395992723760E-02   1.9571181955730938E-04   6.4558364856404809E-04
         1         64   3.4650140367904587E-06   3.8190581131909006E-02   1.3945338486097445E-02   6.3641945311456510E-03
         1         65   0.0000000000000000E+00   6.9180720714867279E-04   3.5910582631918116E-06   1.7211033119541515E-05
         1         66   0.0000000000000000E+00   1.2701802561612785E-03   7.4294708049463909E-06   3.4992493965524191E-05
         1         67   0.0000000000000000E+00   1.7410374786566062E-02   4.1245841477765974E-04   1.4086545350272674E-03
         1         68   0.0000000000000000E+00   5.4951743932616661E-04   3.1462854115073905E-06   1.4673136155513611E-05
         1         69   0.0000000000000000E+00   1.9363137548336809E-02   4.1650062768697405E-04   1.4717396459005376E-03
         1         70   1.4625198222484019E-08   2.3869755233691618E-02   9.6164317094946678E-03   4.6309817698928909E-03
         1         71   2.0673461989312351E-03   8.9224804270290323E-02   3.7072987268688330E-02   1.2025396589357168E-02
         1         72   0.0000000000000000E+00   1.1369095870344129E-02   5.6854044949981083E-04   1.0771119501926745E-03
         1         73   0.0000000000000000E+00   1.1732322177213641E-02   5.4926995077265268E-04   1.0632128992038639E-03
         1         74   3.4453632761280099E-02   2.0747984057853600E-01   1.1827708693986573E-01   2.4998862912727633E-02
         1         75   0.0000000000000000E+00   1.6518682018382570E-02   9.3934139214322859E-04   2.1200829880044093E-03
         1         76   0.0000000000000000E+00   9.4183838333023712E-02   4.3920971057971932E-03   1.0531190928906151E-02
         1         77   0.0000000000000000E+00   6.4040549737858655E-03   3.5485341758108746E-04   6.4267631435833592E-04
         1         78   0.0000000000000000E+00   1.6252403453843500E-02   8.9987603023606428E-04   2.0692267261143557E-03
         1         79   0.0000000000000000E+00   6.0986612427357690E-03   3.2946693514853114E-04   5.9016598188810308E-04
         1         80   3.5180822106638260E-04   1.5592751828559039E-02   6.8721786243930924E-03   2.1012832514734057E-03
         2          1   0.0000000000000000E+00   5.2541989677320891E-02   1.2477450449437984E-03   2.8689767545152481E-03
         2          2   3.2789018831034793E-02   5.4844495845710224E-02   4.3340660655557028E-02   2.2657521561884162E-03
         2          3   2.7080951883047283E-01   3.7678178123670308E-01   3.2055429849624534E-01   1.0310990804827235E-02
         2          4   0.0000000000000000E+00   1.3401054669213402E-02   1.8413384527642511E-04   4.4296508724286010E-04
         2          5   0.0000000000000000E+00   1.4776731202920365E-01   6.7439538683840604E-03   1.1760931652070207E-02
         2          6   1.5739557459787418E-01   2.3327064842924392E-01   1.9511218887476556E-01   7.8298397945272442E-03
         2          7   6.1845035336845011E-01   7.5679408530089620E-01   6.8493740192613473E-01   1.3302519245301471E-02
         2          8   0.0000000000000000E+00   5.2254044563657141E-02   1.4240865111093976E-03   2.5342638526723409E-03
         2          9   0.0000000000000000E+00   2.9472938388025816E-01   2.4892518286200965E-02   3.2058038049311066E-02
         2         10   4.5940439537281297E-01   6.0446890468350045E-01   5.3466408789499442E-01   1.5068068784580104E-02
         2         11   9.0217286464474655E-01   9.9487269961432789E-01   9.5081586339544366E-01   9.2408494279542265E-03
         2         12   0.0000000000000000E+00   1.2450937303541494E-01   7.1709502460994340E-03   9.5570875671989828E-03
         2         13   0.0000000000000000E+00   4.4375205609849255E-01   6.4482835491571772E-02   6.0886094806587757E-02
         2         14   8.1963174892174362E-01   9.6172846719877059E-01   8.9756866775643473E-01   1.4848530172155991E-02
         2         15   9.0060361309531944E-01   1.0098454310835956E+00   9.5807303419798195E-01   1.0605951223651834E-02
         2         16   0.0000000000000000E+00   1.8713495299448701E-01   2.3749999908682637E-02   2.4050105310331873E-02
         2         17   0.0000000000000000E+00   4.8974467162319557E-01   1.2004677975193118E-01   8.6150563016057294E-02
         2         18   9.1206829750402640E-01   9.7199319182712662E-01   9.4603764468419216E-01   6.3129267962371812E-03
         2         19   7.8524195921942508E-01   8.9389446097978165E-01   8.3677454518205652E-01   1.0827375204072643E-02
         2         20   0.0000000000000000E+00   2.3223985371532788E-01   5.2496432337519619E-02   4.1284738518414618E-02
         2         21   0.0000000000000000E+00   5.4363080764393734E-01   1.6320584435127103E-01   9.5659660654109482E-02
         2         22   6.5195454913013606E-01   7.1108449086708203E-01   6.8180597898664419E-01   6.1374401427116178E-03
         2         23   6.4516813500078696E-01   7.2094984372614612E-01   6.8725576994118254E-01   8.1581232747863948E-03
         2         24   0.0000000000000000E+00   2.8037785385140795E-01   7.8977883291877743E-02   5.0154632929702306E-02
         2         25   0.0000000000000000E+00   4.6679183744473279E-01   1.6338778113418784E-01   8.3741689979110245E-02
         2         26   3.8146328420337045E-01   4.4131112712006720E-01   4.1269480855984686E-01   6.5224594225382513E-03
         2         27   4.5727192791133764E-01   5.0120548200096993E-01   4.8008364636164952E-01   4.5943841395048131E-03
         2         28   0.0000000000000000E+00   2.5764756622288060E-01   8.2816281660832963E-02   4.4978766939356679E-02
         2         29   0.0000000000000000E+00   3.3162339129624857E-01   1.2084535720408271E-01   5.6705810467069878E-02
         2         30   2.3122375377067944E-01   2.6764464471249039E-01   2.4911383000580611E-01   4.1723471298992197E-03
         2         31   2.4898840207985648E-01   2.7123758571917078E-01   2.5860456485134220E-01   2.2470188509776654E-03
         2         32   0.0000000000000000E+00   1.7936405341894027E-01   6.2001277996098114E-02   3.0546782671836827E-02
         2         33   0.0000000000000000E+00   1.7795526654183813E-01   6.5969757519447503E-02   2.9199773490887936E-02
         2         34   1.2364180806102353E-01   1.3836862769782754E-01   1.3166383533145884E-01   1.6271195405804190E-03
         2         35   1.0090701509918779E-01   1.1723250942182524E-01   1.0780037749664532E-01   1.6449214410652515E-03
         2         36   0.0000000000000000E+00   9.6312623325085792E-02   3.3722996973263919E-02   1.5748423746015469E-02
         2         37   0.0000000000000000E+00   6.6853919861538574E-02   2.6390235346592610E-02   1.1259451055617188E-02
         2         38   4.7520394580131020E-02   5.2087683375500064E-02   5.0188794825651029E-02   4.2013239231405866E-04
         2         39   3.3809273296398441E-02   4.0774770238373427E-02   3.6912306591955428E-02   7.4029300288331202E-04
         2         40   0.0000000000000000E+00   3.6338775805277494E-02   1.3382245135633918E-02   6.1052347789758883E-03
         2         41   0.0000000000000000E+00   2.6890652278066646E-03   1.1585046600122487E-04   1.5057722668969503E-04
         2         42   0.0000000000000000E+00   1.3309715007681447E-02   1.5076717278757342E-03   1.4990977740464045E-03
         2         43   0.0000000000000000E+00   3.0050372632690121E-02   3.0776063246775588E-03   3.2570031236798494E-03
         2         44   0.0000000000000000E+00   1.8835783545672396E-03   1.0852593700443451E-04   1.3133812495008405E-04
         2         45   5.8446165616820077E-03   9.5715333429243765E-03   7.6487257431740131E-03   3.8408129428747610E-04
         2         46   3.0192529506206291E-02   4.4391642500584375E-02   3.6702528232877611E-02   1.4606829924717871E-03
         2         47   0.0000000000000000E+00   4.9581507417485174E-03   5.3094139411712039E-04   5.1608785287580246E-04
         2         48   3.6249492754370019E-02   5.4713473048258680E-02   4.4342563058381662E-02   1.7622484744198310E-03
         2         49   0.0000000000000000E+00   1.2029423414817341E-02   1.0634224216040653E-03   1.1012717562709320E-03
         2         50   0.0000000000000000E+00   3.0513945761776964E-04   1.7616527815481960E-05   2.3691256036689592E-05
         2         51   0.0000000000000000E+00   2.1329962792130563E-02   1.3405640745165301E-03   1.4852127436284540E-03
         2         52   0.0000000000000000E+00   2.0509907456242499E-02   3.2744662383484011E-03   2.7768201488784271E-03
         2         53   0.0000000000000000E+00   4.2494571048078494E-02   5.2299514515697738E-03   4.8559232548925236E-03
         2         54   0.0000000000000000E+00   2.8697418632272889E-02   2.8021668442503350E-03   2.8212613607507177E-03
         2         55   1.7334216053714192E-02   2.5208551273667185E-02   2.1432619090315724E-02   8.2229318708633968E-04
         2         56   1.3224930224021242E-01   1.6840194967605976E-01   1.5008871495039663E-01   3.8855854902892254E-03
         2         57   0.0000000000000000E+00   6.6766392732746736E-03   1.0703157014568655E-03   8.8272205500142817E-04
         2         58   4.1132733324345847E-02   5.5783596461910438E-02   4.8552744709734398E-02   1.4953604860614604E-03
         2         59   0.0000000000000000E+00   1.1800249062292205E-02   1.6899923620531500E-03   1.4869227428878314E-03
         2         60   0.0000000000000000E+00   1.7760177207671733E-03   1.1827156957227871E-04   1.4346983349896670E-04
         2         61   0.0000000000000000E+00   5.1838145012419072E-05   6.2185974217993913E-07   1.4549466772737060E-06
         2         62   0.0000000000000000E+00   1.6571019626984670E-03   1.1779374857163599E-04   1.4740729590015749E-04
         2         63   0.0000000000000000E+00   4.6453543222651755E-03   3.7048998626866114E-04   4.4261398644117290E-04
         2         64   0.0000000000000000E+00   1.9210642582329934E-05   4.5288124394237749E-07   8.4875345073171009E-07
         2         65   6.8531428041102515E-04   1.5262935038147132E-03   1.0616821612496642E-03   8.6890720900981817E-05
         2         66   7.4544653212622377E-03   1.3017063413565125E-02   1.0013464802634616E-02   5.4445802618651037E-04
         2         67   0.0000000000000000E+00   7.3990866145981710E-04   3.7915489753321785E-05   4.7122633637947146E-05
         2         68   1.2590208422099835E-02   2.0313769599024353E-02   1.5981420020589977E-02   7.3641242827286854E-04
         2         69   0.0000000000000000E+00   1.9865577691706529E-03   1.1548374241518240E-04   1.3428474796982207E-04
         2         70   0.0000000000000000E+00   3.7236974867414986E-06   7.7251387291140916E-08   1.4459139288046647E-07
         2         71   0.0000000000000000E+00   1.5192843015282642E-02   1.0728974484612750E-03   1.1647138977285564E-03
         2         72   0.0000000000000000E+00   7.9018016356751652E-03   1.2890363489843240E-03   1.0564637064374965E-03
         2         73   0.0000000000000000E+00   1.3553517763865213E-02   1.7859816821538146E-03   1.6091247990136055E-03
         2         74   0.0000000000000000E+00   2.4398389002409010E-02   2.5399163698448259E-03   2.5346133668874894E-03
         2         75   8.8346587397516267E-03   1.2577626940931697E-02   1.0794671997975144E-02   3.9852594008673925E-04
         2         76   9.7659093126683513E-02   1.2267296951320407E-01   1.0994423471675148E-01   2.7149000156214253E-03
         2         77   0.0000000000000000E+00   2.2837944895413376E-03   3.7957769976392413E-04   3.0129220675441268E-04
         2         78   1.8296980245373858E-02   2.4571568918680349E-02   2.1627927797378911E-02   6.8822290868941944E-04
         2         79   0.0000000000000000E+00   2.7885611188155786E-03   5.0642062925495310E-04   4.1235663083491253E-04
         2         80   0.0000000000000000E+00   1.1444690869786369E-03   7.9164620923171118E-05   9.3299623738046675E-05
         3          1   0.0000000000000000E+00   7.3092466100060594E-02   1.2988415995035152E-03   3.7464053972162963E-03
         3          2   2.6472826946250222E-01   3.7601749284835884E-01   3.2055429849624550E-01   1.0902525739520131E-02
         3          3   3.2071421377631949E-02   5.3413738890294007E-02   4.2487717364600337E-02   2.1900119725456421E-03
         3          4   0.0000000000000000E+00   6.4658388582744340E-03   1.6102038386076864E-04   3.2967026363504577E-04
         3          5   0.0000000000000000E+00   1.7834785274979084E-01   6.6435794711634842E-03   1.3428857586457977E-02
         3          6   6.1084404719286767E-01   7.5174887592199124E-01   6.8493740192613473E-01   1.4138009295660271E-02
         3          7   1.5471919507059342E-01   2.2815592180292565E-01   1.9220537883988534E-01   7.6268843810198116E-03
         3          8   0.0000000000000000E+00   2.9950123881138924E-02   1.2918213781380620E-03   2.1220361781051945E-03
         3          9   0.0000000000000000E+00   2.8133470988453829E-01   2.3927974621526734E-02   3.3128147039764529E-02
         3         10   8.9965603724403220E-01   9.9425075184383138E-01   9.5081586339544355E-01   1.0113305955039127E-02
         3         11   4.5383701410580984E-01   5.9444700512835502E-01   5.2914381248063924E-01   1.4794846760882737E-02
         3         12   0.0000000000000000E+00   9.3249175369341783E-02   6.6751832885492942E-03   8.6952635033433583E-03
         3         13   0.0000000000000000E+00   4.0048346255521039E-01   6.1828865142787306E-02   6.0015125850967875E-02
         3         14   9.0047873526734357E-01   1.0122731344679123E+00   9.5807303419798195E-01   1.1706752156456479E-02
         3         15   8.1366023719128910E-01   9.5222776486677640E-01   8.9207377511484609E-01   1.4743622353797803E-02
         3         16   0.0000000000000000E+00   1.9026785416340891E-01   2.2510106371016463E-02   2.3025673187733648E-02
         3         17   0.0000000000000000E+00   5.4895336830787334E-01   1.1593447539677044E-01   8.4865447820754836E-02
         3         18   7.7308577074743179E-01   8.9397465442189550E-01   8.3677454518205630E-01   1.2046300851138435E-02
         3         19   9.0904317483323083E-01   9.7029604111083267E-01   9.4335422464505247E-01   6.4542606616758745E-03
         3         20   0.0000000000000000E+00   2.7143655091801944E-01   5.0401445773129862E-02   4.0528143971442325E-02
         3         21   0.0000000000000000E+00   5.9828885251352748E-01   1.5880082083941674E-01   9.5149887323707882E-02
         3         22   6.4540315583484387E-01   7.2719138819787588E-01   6.8725576994118265E-01   9.0715775922696178E-03
         3         23   6.5627157922387380E-01   7.0795165016792383E-01   6.8049997450217492E-01   5.9669691282591168E-03
         3         24   0.0000000000000000E+00   2.8130197318949751E-01   7.6575351983917975E-02   4.9653732019355544E-02
         3         25   0.0000000000000000E+00   5.1028657664425003E-01   1.5977536345602120E-01   8.3297811923650877E-02
         3         26   4.5575900087812304E-01   5.0128679223511952E-01   4.8008364636164946E-01   5.0291398113610991E-03
         3         27   3.8279720338563816E-01   4.3916119930404562E-01   4.1085212942703336E-01   6.4746785181316307E-03
         3         28   0.0000000000000000E+00   2.5452280053916010E-01   8.0938016209241098E-02   4.4684280574206196E-02
         3         29   0.0000000000000000E+00   3.0905704141702073E-01   1.1865653169909679E-01   5.6263610795928842E-02
         3         30   2.4826268992678113E-01   2.7196280703222014E-01   2.5860456485134226E-01   2.3401336215742724E-03
         3         31   2.2579826175470008E-01   2.6565812765776886E-01   2.4751907506059728E-01   4.2770347252652791E-03
         3         32   0.0000000000000000E+00   1.6930558823618777E-01   6.0978280020224006E-02   3.0480286810821575E-02
         3         33   0.0000000000000000E+00   1.6415513044271060E-01   6.5089330366587372E-02   2.9034370964613906E-02
         3         34   1.0052600723437850E-01   1.1687781740985619E-01   1.0780037749664530E-01   1.6866828359536029E-03
         3         35   1.2277026416085940E-01   1.3791475768705433E-01   1.3107772552629954E-01   1.6751596936379516E-03
         3         36   0.0000000000000000E+00   9.3397153400801430E-02   3.3312336882390041E-02   1.5752212434502755E-02
         3         37   0.0000000000000000E+00   6.7774924769600065E-02   2.6176324922031126E-02   1.1255402240340360E-02
         3         38   3.3575488667635572E-02   4.1122288594444646E-02   3.6912306591955428E-02   7.7936636187003478E-04
         3         39   4.8107988568882556E-02   5.1789953067150958E-02   5.0164882531152116E-02   4.0852403592854736E-04
         3         40   0.0000000000000000E+00   3.7226784349593880E-02   1.3251397524037967E-02   6.0975550558508441E-03
         3         41   0.0000000000000000E+00   2.2253954097255012E-03   1.0887168926015490E-04   1.4520492969723921E-04
         3         42   0.0000000000000000E+00   3.4414545632783240E-02   3.0301143688659599E-03   3.4344059825923159E-03
         3         43   0.0000000000000000E+00   1.5299426459825991E-02   1.4444690186485019E-03   1.5390688461500144E-03
         3         44   0.0000000000000000E+00   1.7745976043042852E-03   1.0157271058480390E-04   1.2644925944488178E-04
         3         45   3.5520164006965879E-02   5.3580706720291402E-02   4.4351990754742956E-02   1.8721810856819801E-03
         3         46   2.8584502368038972E-02   4.3452782011148848E-02   3.6322392137396152E-02   1.4624385363870686E-03
         3         47   0.0000000000000000E+00   8.7457867516653239E-03   1.0257728857352975E-03   1.0407695141849431E-03
         3         48   5.8553043626446942E-03   9.2427414899781367E-03   7.5083192171929349E-03   3.6569746225040772E-04
         3         49   0.0000000000000000E+00   3.9612540636899769E-03   4.9585148141896031E-04   4.7662035614273550E-04
         3         50   0.0000000000000000E+00   4.0852048076585226E-04   1.6592880388011031E-05   2.3489743681090232E-05
         3         51   0.0000000000000000E+00   1.7587101767187929E-02   1.2837938817258296E-03   1.4974313754936937E-03
         3         52   0.0000000000000000E+00   3.8320822853943136E-02   5.2774434073813714E-03   4.8637445357446419E-03
         3         53   0.0000000000000000E+00   2.0699223221731764E-02   3.1172289471134342E-03   2.6847206652723882E-03
         3         54   0.0000000000000000E+00   2.5412627248136744E-02   2.6701085698870252E-03   2.7956035810307173E-03
         3         55   4.1083566032100373E-02   5.6087971334304640E-02   4.9043630836894177E-02   1.5788201067728047E-03
         3         56   1.2912988730346767E-01   1.6623197782081156E-01   1.4946822339883598E-01   3.8983786844606744E-03
         3         57   0.0000000000000000E+00   1.2337333350229270E-02   1.7276418979219174E-03   1.5334467151951307E-03
         3         58   1.7412530271149813E-02   2.4442881482809202E-02   2.1055226377059446E-02   7.8231368311361957E-04
         3         59   0.0000000000000000E+00   6.2935178969700401E-03   9.9818655723085963E-04   8.2920831757226157E-04
         3         60   0.0000000000000000E+00   1.7315344066645792E-03   1.1141018989841751E-04   1.3855105373308704E-04
         3         61   0.0000000000000000E+00   5.0590406939465742E-05   5.8299365121316454E-07   1.3948978974413057E-06
         3         62   0.0000000000000000E+00   6.0099253063370349E-03   3.4027746677668962E-04   4.4179318347185203E-04
         3         63   0.0000000000000000E+00   2.0095297348252223E-03   1.1358830446506100E-04   1.5933748160699781E-04
         3         64   0.0000000000000000E+00   2.6935946121685580E-05   4.2861290341332859E-07   8.6143021194497741E-07
         3         65   1.1280265939980281E-02   1.9721996634999375E-02   1.5785256779118458E-02   8.5976296108113159E-04
         3         66   6.7565618430741733E-03   1.2765028364895516E-02   9.8334178973163971E-03   5.7703471949442241E-04
         3         67   0.0000000000000000E+00   1.6803130218297857E-03   1.0338701601098722E-04   1.1956101292699208E-04
         3         68   6.7156613766564263E-04   1.4426142932790836E-03   1.0305181327664678E-03   8.2950594042497468E-05
         3         69   0.0000000000000000E+00   4.7720633918849054E-04   3.5192986784495104E-05   4.2449476327646793E-05
         3         70   0.0000000000000000E+00   6.4696796045705912E-06   7.3674873742542757E-08   1.5503684976359887E-07
         3         71   0.0000000000000000E+00   1.3896280898944536E-02   1.0317192000737177E-03   1.1922146848888932E-03
         3         72   0.0000000000000000E+00   1.3744022584936483E-02   1.8209105582772370E-03   1.5529247597405723E-03
         3         73   0.0000000000000000E+00   8.0458251272663064E-03   1.2321568116681260E-03   1.0417618570204628E-03
         3         74   0.0000000000000000E+00   2.3501574608380475E-02   2.4248103143247081E-03   2.5289392665122641E-03
         3         75   1.8382215290736928E-02   2.5134155848872772E-02   2.1899465427859036E-02   7.3048934384126565E-04
         3         76   9.5800917922130260E-02   1.2094916582286958E-01   1.0967601342937516E-01   2.7310931286776831E-03
         3         77   0.0000000000000000E+00   3.9618131686941799E-03   5.4293392860029865E-04   4.5366376956438171E-04